# t (s)	mx ()	my ()	mz ()
0	0.9972527	3.5802599e-09	1.1469723e-10
1.0002858080021541e-11	0.99725246	-0.00018613135	0.00023039675
2.001901091127361e-11	0.9972517	7.619608e-05	-0.0008433977
3.0024364699573375e-11	0.9972471	0.002471433	-0.0016325625
4.000004516193138e-11	0.99724144	0.00441043	-0.0007157607
5.0003416732688575e-11	0.99723935	0.004971297	-1.8515848e-06
6.000040559806484e-11	0.9972426	0.004163035	0.0008860628
7.002409825067537e-11	0.99724805	0.002278459	0.001296
8.001461966667515e-11	0.9972508	-3.5015022e-05	0.0014580522
9.002426556541866e-11	0.9972487	-0.0021396326	0.0011296336
1.0001030485486355e-10	0.9972437	-0.0035456044	0.0006653493
1.1001497213977799e-10	0.9972404	-0.004035204	1.4794712e-05
1.2002771390937498e-10	0.99724245	-0.003591803	-0.00051579747
1.3000060370348023e-10	0.99724823	-0.002384378	-0.0009753872
1.4001435945340743e-10	0.9972521	-0.00068396004	-0.0011575704
1.5000369657441284e-10	0.99725026	0.0011647322	-0.0011579742
1.6000318201836802e-10	0.99724495	0.0028011836	-0.00084947096
1.7000674412821356e-10	0.99724126	0.003841075	-0.0003684711
1.8001947383554534e-10	0.9972425	0.003961214	0.00029117835
1.9002003958125303e-10	0.9972473	0.0030430926	0.0008752736
2.000190898094733e-10	0.99725133	0.001255361	0.0013007454
2.1002567973167017e-10	0.99725133	-0.0009615067	0.0013415697
2.2001553522638043e-10	0.997247	-0.0029804579	0.0010273249
2.300224889192609e-10	0.9972424	-0.0041798353	0.00036324668
2.4001629272062385e-10	0.9972422	-0.004168643	-0.0003789036
2.500089411919252e-10	0.9972467	-0.0029622223	-0.0010312439
2.6001179656010813e-10	0.99725115	-0.0009448619	-0.0013342326
2.7001178978246137e-10	0.99725145	0.0012599893	-0.0012669093
2.8002262006862556e-10	0.997248	0.002998476	-0.00081882434
2.900105060964025e-10	0.9972445	0.0038014953	-0.00020776759
3.000029053193915e-10	0.997244	0.0035513402	0.00042687607
3.1000974112074037e-10	0.9972466	0.0024276432	0.0008686599
3.2000145416942216e-10	0.9972501	0.0008064413	0.0010797303
3.3000561665059873e-10	0.99725145	-0.00088111655	0.0009991184
3.4001490924413337e-10	0.9972494	-0.0022463934	0.0007247292
3.500120241843317e-10	0.99724615	-0.0030389712	0.00029627865
3.60018811918881e-10	0.99724513	-0.0031461269	-0.00015475956
3.700221372640869e-10	0.99724734	-0.0025594044	-0.0005929294
3.8000444854121586e-10	0.9972502	-0.0013804124	-0.0008938755
3.9002501610977035e-10	0.99725085	0.00017043026	-0.0010228322
4.000259950000867e-10	0.9972492	0.0017462298	-0.0008903069
4.100079500149993e-10	0.9972469	0.0029536132	-0.00053731806
4.200276772321125e-10	0.99724615	0.0034385698	9.306509e-06
4.3002456265653585e-10	0.9972477	0.002992246	0.00056944793
4.400191028955032e-10	0.9972501	0.0016847325	0.0010063895
4.5002766010991216e-10	0.9972511	-0.0001322661	0.0011452981
4.600267093491664e-10	0.99724936	-0.0019238734	0.00096525275
4.700148355708865e-10	0.9972468	-0.0031556822	0.00048647617
4.800028515719811e-10	0.9972463	-0.003462672	-0.00011033398
4.900041988568004e-10	0.99724835	-0.002775357	-0.00066684873
5.000192182805396e-10	0.997251	-0.0013486424	-0.0009894165
5.100201880666541e-10	0.9972514	0.00035318566	-0.0010293431
5.2001110902126e-10	0.9972497	0.0018414506	-0.00077756523
5.300074390739171e-10	0.99724734	0.002745026	-0.00036048258
5.400242609627195e-10	0.99724674	0.0028905473	0.000119578195
5.500188392894062e-10	0.99724835	0.0023335994	0.0005102962
5.600191528858222e-10	0.9972509	0.0012824541	0.0007629993
5.700216573153199e-10	0.9972522	6.1059004e-06	0.0008211916
5.800218285720091e-10	0.99725085	-0.0012236082	0.00071699236
5.900243829264086e-10	0.99724805	-0.0021592313	0.00045098946
6.000044522314201e-10	0.99724686	-0.0026110762	9.8178934e-05
6.100165881312516e-10	0.9972482	-0.0024690717	-0.00030363494
6.200280210499009e-10	0.99725074	-0.0017219333	-0.0006459666
6.300126296188968e-10	0.9972522	-0.0005011484	-0.0008598067
6.400053277247734e-10	0.9972514	0.0009144107	-0.0008454892
6.500067875095334e-10	0.9972491	0.0021451602	-0.0006064597
6.600187788229308e-10	0.99724734	0.002824241	-0.0001718341
6.700092099717631e-10	0.9972478	0.0027238056	0.00031683894
6.800059475416287e-10	0.99725	0.0018435477	0.000734385
6.900063170606778e-10	0.997252	0.00043231514	0.00092670775
7.000065477263827e-10	0.99725175	-0.0010807317	0.00085538544
7.100054969734041e-10	0.99724984	-0.0022420152	0.0005294474
7.200064898224128e-10	0.99724823	-0.0027300974	7.72393e-05
7.300119226133935e-10	0.99724835	-0.0024436715	-0.00037920233
7.400209275332614e-10	0.99724996	-0.00151784	-0.00068872055
7.500032863187741e-10	0.99725145	-0.00026850853	-0.0007986562
7.600171193211361e-10	0.99725175	0.000950696	-0.0006878647
7.700077156646881e-10	0.99725056	0.0018411996	-0.00043187087
7.800252510161004e-10	0.9972492	0.0022376757	-9.0707166e-05
7.900098922171915e-10	0.99724895	0.0020977538	0.00023418857
8.000266792128132e-10	0.9972501	0.0014945611	0.00049968803
8.100200004525826e-10	0.9972514	0.00057984085	0.0006420156
8.200189075310068e-10	0.9972515	-0.00046045048	0.00065642217
8.300216742198443e-10	0.9972506	-0.0014139496	0.0005162868
8.400243786637858e-10	0.99724954	-0.0020597486	0.0002551968
8.500254227564959e-10	0.99724954	-0.0022177636	-9.449011e-05
8.600258497846781e-10	0.9972504	-0.0018088941	-0.00043301366
8.700279524459246e-10	0.9972512	-0.0008973211	-0.0006833818
8.800056593000243e-10	0.9972514	0.00029580703	-0.0007474238
8.90017456862971e-10	0.99725056	0.0014467902	-0.0006069747
9.000050295800646e-10	0.9972496	0.00220439	-0.00027881833
9.100193855831028e-10	0.9972496	0.0023368404	0.0001264467
9.200201894033061e-10	0.99725074	0.001802356	0.000499479
9.30018697933129e-10	0.99725163	0.00076949183	0.00071243825
9.400171655597849e-10	0.9972516	-0.0004438337	0.00071996095
9.500151713425112e-10	0.9972506	-0.001475156	0.0005168012
9.600124987397602e-10	0.99724966	-0.0020448917	0.00019318622
9.700094006260277e-10	0.9972498	-0.0020384856	-0.00016221583
9.800068963883785e-10	0.99725074	-0.0015144156	-0.00043750502
9.900059575945583e-10	0.99725175	-0.00065572024	-0.0005865645
1.0000074321424113e-09	0.9972521	0.00029574693	-0.00057747704
1.0100119852005363e-09	0.99725115	0.0011141563	-0.00044631673
1.0200196908744004e-09	0.9972499	0.0016376575	-0.00022031802
1.030002121964534e-09	0.9972496	0.0017791678	3.616782e-05
1.0400159541015457e-09	0.9972506	0.0015190325	0.00028989866
1.0500007702467314e-09	0.9972518	0.00090982986	0.00047583325
1.0600058662618882e-09	0.99725235	7.0777234e-05	0.00056551053
1.0700043309034947e-09	0.9972516	-0.00081523624	0.00051572954
1.0800014345005383e-09	0.9972504	-0.0015335365	0.00033827723
1.0900261800952473e-09	0.99724984	-0.0018797121	5.1549036e-05
1.1000213578815581e-09	0.99725026	-0.0017266988	-0.00025816407
1.1100170555708283e-09	0.99725145	-0.0010893228	-0.0005146444
1.120014904180351e-09	0.9972523	-0.0001319969	-0.00062471116
1.130015832043566e-09	0.997252	0.00087298424	-0.0005616529
1.1400201633425651e-09	0.99725085	0.0016271581	-0.0003281126
1.150027382534226e-09	0.9972501	0.0019062927	-8.563545e-06
1.160008206775197e-09	0.9972503	0.0016409775	0.00030786786
1.1700189846264074e-09	0.9972513	0.0009322518	0.0005167607
1.1800007039852707e-09	0.99725187	1.1311562e-05	0.0005756184
1.1900073719039235e-09	0.99725187	-0.00085675286	0.000469692
1.2000083176946607e-09	0.9972513	-0.0014414858	0.0002560209
1.2100059900686175e-09	0.9972507	-0.001620397	-7.705262e-06
1.220002989864521e-09	0.99725074	-0.0013940986	-0.00024007732
1.2300003585208603e-09	0.9972512	-0.00085754733	-0.00040377246
1.2400272723862318e-09	0.9972518	-0.0001531605	-0.00046152665
1.2500267938473145e-09	0.99725175	0.000555444	-0.0004217546
1.2600278706210717e-09	0.9972514	0.001122402	-0.00028624551
1.27000192671851e-09	0.997251	0.0014317078	-9.399203e-05
1.280006263463862e-09	0.997251	0.0014135018	0.00013066018
1.2900118551958903e-09	0.9972514	0.0010523857	0.00032883286
1.3000180443252825e-09	0.99725175	0.00041153224	0.0004613364
1.3100238564049651e-09	0.99725163	-0.00036329616	0.00047495184
1.320028468522522e-09	0.9972513	-0.0010714842	0.00036562103
1.3300028402210375e-09	0.997251	-0.0015094772	0.00014415888
1.3400046990191021e-09	0.9972511	-0.0015388841	-0.00012213623
1.3500060738156767e-09	0.9972516	-0.0011331559	-0.0003644199
1.3600070338528069e-09	0.99725187	-0.00040500134	-0.00049669156
1.3700075465559584e-09	0.99725175	0.00042887023	-0.0004884315
1.3800077465709707e-09	0.9972513	0.0011213138	-0.00033525488
1.3900079927611456e-09	0.9972509	0.0014769193	-9.8237586e-05
1.4000086318235227e-09	0.9972511	0.0014109719	0.00015794719
1.4100099381811058e-09	0.99725163	0.00097032794	0.00034885935
1.4200121541038407e-09	0.99725217	0.00030580786	0.00043764993
1.4300150820445469e-09	0.99725205	-0.0003880564	0.00040327702
1.4400188336811753e-09	0.99725145	-0.0009365868	0.00027808355
1.450023166578859e-09	0.997251	-0.0012239564	9.32413e-05
1.4600277173996034e-09	0.99725103	-0.0012092482	-9.432661e-05
1.4700034049580682e-09	0.9972516	-0.0009211856	-0.00025449172
1.480007155085067e-09	0.99725217	-0.00043440823	-0.00034957068
1.4900098662311843e-09	0.9972522	0.00014590427	-0.00037219012
1.500011249473578e-09	0.99725163	0.0006972308	-0.00030676118
1.510011392641465e-09	0.9972512	0.0010941975	-0.00017185399
1.520010930833457e-09	0.997251	0.0012333161	1.6608637e-05
1.5300105317401225e-09	0.9972514	0.0010625166	0.00020661808
1.540010710778188e-09	0.99725187	0.0006039263	0.00035692408
1.5500117890507224e-09	0.9972522	-3.562771e-05	0.00041158675
1.5600139582547384e-09	0.997252	-0.000683421	0.00035622393
1.570017184583082e-09	0.9972514	-0.0011505248	0.00019244468
1.580021122720818e-09	0.9972511	-0.0012956212	-2.425974e-05
1.5900255424686396e-09	0.9972513	-0.0010735209	-0.00023744191
1.6000011801961336e-09	0.9972518	-0.0005548219	-0.0003736444
1.6100049678876138e-09	0.9972521	0.00010370288	-0.0004034122
1.6200077566490163e-09	0.997252	0.0007046856	-0.00031466354
1.6300094975239166e-09	0.9972516	0.0010829854	-0.00014970628
1.6400102974652859e-09	0.9972514	0.0011525244	4.7332756e-05
1.6500106112224857e-09	0.99725145	0.0009215572	0.00021260083
1.660010751089165e-09	0.9972517	0.00047666772	0.00031508203
1.670011267343575e-09	0.99725187	-5.2572486e-05	0.00032937076
1.68001244045024e-09	0.99725205	-0.0005355326	0.00027076167
1.6900142439357935e-09	0.9972517	-0.0008702523	0.00015157158
1.7000166443979735e-09	0.9972516	-0.0009953385	8.571946e-06
1.7100196042893014e-09	0.99725163	-0.0008913779	-0.00013744287
1.720022844521838e-09	0.9972518	-0.0005817729	-0.0002492944
1.7300261666860626e-09	0.99725187	-0.00013005506	-0.00031075187
1.74000063410335e-09	0.99725175	0.00036474742	-0.00029596713
1.7500033859982581e-09	0.99725163	0.0007869275	-0.00020975493
1.7600058380485592e-09	0.99725163	0.0010194759	-5.9338294e-05
1.7700077753100741e-09	0.99725175	0.0009864555	0.000110756955
1.7800093211805615e-09	0.99725187	0.00068222743	0.00026082149
1.7900105601529975e-09	0.99725187	0.0001819484	0.00033727865
1.8000116872702131e-09	0.99725187	-0.00037502963	0.00032208432
1.8100127566645523e-09	0.99725163	-0.0008255027	0.0002101241
1.820014042463687e-09	0.9972516	-0.0010371871	4.3036696e-05
1.830015586958726e-09	0.9972517	-0.00095348223	-0.00013521736
1.8400174792076836e-09	0.99725205	-0.0006100766	-0.00026434314
1.850019730639665e-09	0.9972521	-0.000117535135	-0.00031734686
1.8600222204165511e-09	0.99725187	0.00037811164	-0.00027776323
1.8700250038071543e-09	0.9972517	0.00074361044	-0.0001719648
1.880027913477193e-09	0.9972515	0.0008960178	-2.7744154e-05
1.890002103083448e-09	0.99725163	0.00081890915	0.000107378706
1.900004820688935e-09	0.99725205	0.00055162766	0.00021067272
1.910007204012813e-09	0.9972522	0.00017065436	0.0002555335
1.9200090952149703e-09	0.9972521	-0.00023316688	0.00024505434
1.930010516390324e-09	0.9972518	-0.0005727312	0.00017765658
1.9400116985625085e-09	0.9972516	-0.00077779405	7.500675e-05
1.950012747184025e-09	0.99725163	-0.00080230547	-5.0231425e-05
1.9600138539171445e-09	0.9972518	-0.00063350156	-0.00016437398
1.9700152295362613e-09	0.9972521	-0.00030108326	-0.00024658194
1.9800169949466695e-09	0.9972522	0.00012040329	-0.0002653855
1.9900191142997503e-09	0.9972521	0.00052475353	-0.00021750262
2.0000215876510045e-09	0.99725175	0.0007994522	-0.000104033155
2.0100242852513306e-09	0.99725163	0.0008599701	3.8990856e-05
2.0200271507790135e-09	0.9972517	0.0006808525	0.00017737281
2.030001262418047e-09	0.99725187	0.00031135342	0.00026227496
2.0400037894595662e-09	0.9972522	-0.00014302578	0.0002751516
2.050005986509179e-09	0.99725205	-0.0005480118	0.00020602888
2.0600078000317364e-09	0.9972518	-0.0007881968	8.446511e-05
2.070009236141181e-09	0.99725175	-0.00080252736	-5.7989128e-05
2.0800105245857346e-09	0.99725175	-0.00060099043	-0.00017275343
2.0900118001749616e-09	0.997252	-0.00025430336	-0.00023691318
2.1000131424231694e-09	0.9972521	0.00013457674	-0.00023226868
2.1100147376144027e-09	0.9972521	0.00046416506	-0.00017368491
2.1200165561412313e-09	0.997252	0.0006601233	-7.504536e-05
2.130018591988153e-09	0.9972518	0.00068891555	3.0634867e-05
2.140020945949874e-09	0.99725175	0.0005570168	0.00012653219
2.1500233577151845e-09	0.997252	0.00030200687	0.00018767384
2.160025816662279e-09	0.99725205	-1.8464354e-05	0.00020950315
2.1700283023734158e-09	0.99725205	-0.00033483998	0.00018068393
2.1800019637835857e-09	0.997252	-0.00057526794	0.000112219015
2.1900040865726097e-09	0.997252	-0.00068095344	1.0238134e-05
2.200005990047201e-09	0.99725205	-0.00061714987	-9.585899e-05
2.210007694030512e-09	0.99725205	-0.00038955497	-0.00018495419
2.2200092857366003e-09	0.99725205	-5.020262e-05	-0.00022439263
2.2300108484908537e-09	0.99725187	0.00031141695	-0.00020596053
2.2400123776613605e-09	0.99725187	0.0005926683	-0.00012577776
2.2500140286858517e-09	0.99725187	0.00071042305	-1.1843839e-05
2.2600157126911568e-09	0.997252	0.00062862464	0.00010850864
2.2700176056831387e-09	0.9972522	0.00037228773	0.00019313867
2.2800196980000548e-09	0.9972521	1.9610858e-05	0.00022360828
2.2900219064158425e-09	0.99725205	-0.00032471513	0.00018739857
2.300024157695743e-09	0.9972518	-0.0005649144	0.00010486829
2.3100264675690567e-09	0.9972518	-0.00064230803	-3.1629681e-06
2.320000101747978e-09	0.99725205	-0.00054955616	-9.933936e-05
2.330002283285126e-09	0.9972521	-0.00032448495	-0.0001662166
2.340004294046195e-09	0.9972522	-3.4626268e-05	-0.00018472922
2.3500061807119785e-09	0.9972521	0.0002461493	-0.00016156747
2.3600079291777003e-09	0.997252	0.00045514546	-0.000100167956
2.370009485600693e-09	0.99725175	0.0005511443	-2.1961334e-05
2.380011120789599e-09	0.99725175	0.0005178185	6.211397e-05
2.390012762504104e-09	0.9972521	0.00036438435	0.0001288935
2.400014427219693e-09	0.9972522	0.00012336951	0.00016982919
2.4100162125745978e-09	0.9972521	-0.00015258997	0.00016828561
2.4200182019962287e-09	0.9972521	-0.00039819913	0.00012750234
2.430020350291556e-09	0.9972518	-0.00054852484	4.881318e-05
2.4400225250638277e-09	0.99725187	-0.00055796694	-4.3468623e-05
2.4500247363134978e-09	0.99725205	-0.0004165491	-0.00013018464
2.4600269773705976e-09	0.99725205	-0.000157805	-0.0001800906
2.470000496250801e-09	0.9972522	0.000146783	-0.00018269946
2.4800024423594444e-09	0.9972521	0.0004111182	-0.00013047995
2.490004358646217e-09	0.997252	0.0005576461	-4.4326476e-05
2.500006175072128e-09	0.99725187	0.0005460215	5.5079257e-05
2.5100078690606615e-09	0.99725187	0.000384718	0.00013270667
2.5200095172284823e-09	0.9972521	0.0001259812	0.00017267322
2.530011233524846e-09	0.9972521	-0.00015282092	0.0001610591
2.540013027947545e-09	0.9972521	-0.00037539267	0.000110655135
2.5500148488353763e-09	0.99725205	-0.000488515	3.3273765e-05
2.5600167553625654e-09	0.99725205	-0.0004735445	-4.382264e-05
2.5700188237969405e-09	0.99725205	-0.00034501025	-0.00010757013
2.5800209362048023e-09	0.99725205	-0.00014175987	-0.00013971941
2.590022990638723e-09	0.9972521	8.578391e-05	-0.00014120848
2.6000250598564383e-09	0.9972521	0.00028675108	-0.000108342596
2.610027167181884e-09	0.9972521	0.00041841515	-5.4177093e-05
2.620000509374821e-09	0.9972521	0.000451627	1.5306821e-05
2.6300024307551217e-09	0.9972521	0.000376542	8.028454e-05
2.6400043106430994e-09	0.9972521	0.00020619933	0.00013051051
2.65000611619272e-09	0.99725205	-2.1610418e-05	0.00014685902
2.6600079316474157e-09	0.99725205	-0.0002506391	0.00012780007
2.670009680953142e-09	0.99725205	-0.00041872595	7.057372e-05
2.6800115159611375e-09	0.99725205	-0.00047611908	-5.4544516e-06
2.6900133455754933e-09	0.99725205	-0.00040262955	-8.412927e-05
2.7000151810527953e-09	0.99725205	-0.00021698876	-0.00013701852
2.71001711233459e-09	0.9972521	2.7820639e-05	-0.00015327254
2.720019126971455e-09	0.99725205	0.00026056234	-0.00012333758
2.73002115704072e-09	0.9972521	0.0004148853	-6.223028e-05
2.740023121993583e-09	0.9972521	0.0004501472	1.5881573e-05
2.7500252041376095e-09	0.99725217	0.00036316234	8.2956554e-05
2.760027252225705e-09	0.9972522	0.00018554622	0.00012623632
2.7700005633252555e-09	0.9972522	-2.8474627e-05	0.00013160931
2.7800024307301356e-09	0.99725205	-0.00022273588	0.000106171974
2.7900042997054557e-09	0.99725205	-0.00035069298	5.443233e-05
2.8000061643144678e-09	0.99725205	-0.0003877348	-4.2393126e-06
2.8100079807483056e-09	0.9972521	-0.00033200704	-6.108816e-05
2.820009746818045e-09	0.9972521	-0.00020103765	-9.942618e-05
2.8300116382158757e-09	0.9972522	-2.5879386e-05	-0.00011694557
2.8400134934516585e-09	0.9972522	0.00015435019	-0.000105213985
2.850015364476669e-09	0.9972521	0.00029903228	-7.112522e-05
2.8600173009919548e-09	0.9972521	0.00037296192	-1.630712e-05
2.8700193431074015e-09	0.99725205	0.00035472235	4.2274776e-05
2.880021351921422e-09	0.9972521	0.00024392137	9.4765004e-05
2.8900233012633403e-09	0.9972522	6.536491e-05	0.00012141306
2.9000252745058226e-09	0.9972521	-0.00013493546	0.00011798737
2.9100272823994797e-09	0.99725205	-0.00030130177	7.910416e-05
2.9200005621554956e-09	0.99725205	-0.00038541135	1.9983761e-05
2.9300023714716776e-09	0.99725205	-0.0003625351	-4.7309608e-05
2.9400043146725143e-09	0.99725205	-0.00023935047	-9.803078e-05
2.950006161787209e-09	0.9972521	-5.3073545e-05	-0.00012225579
2.9600079759184817e-09	0.9972522	0.00014129374	-0.000109393164
2.970009834469993e-09	0.9972522	0.000289279	-6.959995e-05
2.9800117678893483e-09	0.9972521	0.00035314815	-1.12623175e-05
2.990013610308301e-09	0.9972521	0.0003218441	4.394489e-05
3.0000154930335746e-09	0.9972521	0.00021084755	8.635483e-05
3.0100174600635715e-09	0.9972521	5.4435535e-05	0.00010227757
3.0200194650280345e-09	0.99725205	-0.000106338506	9.497035e-05
3.0300213736863332e-09	0.9972521	-0.00023394934	6.3806925e-05
3.040023316245311e-09	0.9972521	-0.00030185207	2.1783337e-05
3.0500253415767766e-09	0.9972521	-0.00029755506	-2.6191437e-05
3.060027312585526e-09	0.9972521	-0.00022358345	-6.541424e-05
3.0700005224273514e-09	0.9972521	-9.663783e-05	-9.199175e-05
3.0800023885209963e-09	0.9972521	5.581328e-05	-9.4936964e-05
3.0900043057813597e-09	0.9972521	0.0001976358	-7.668542e-05
3.100006164896193e-09	0.99725217	0.00029239018	-3.572313e-05
3.110007981696804e-09	0.9972521	0.00031287715	1.4001959e-05
3.1200098945225802e-09	0.9972522	0.0002499669	6.387994e-05
3.130011801220881e-09	0.9972522	0.00011789059	9.514251e-05
3.140013700907704e-09	0.9972521	-4.799643e-05	0.00010245828
3.150015601378989e-09	0.99725205	-0.00020064466	7.872875e-05
3.1600175901268045e-09	0.99725205	-0.00029629172	3.516803e-05
3.170019504987908e-09	0.99725205	-0.00030828136	-1.9549874e-05
3.180021445856336e-09	0.9972521	-0.00023554506	-6.496248e-05
3.190023348568112e-09	0.9972521	-0.00010183264	-9.2722505e-05
3.2000253795247784e-09	0.9972522	5.2695043e-05	-9.192471e-05
3.2100273142692724e-09	0.9972521	0.00018522581	-6.905734e-05
3.2200004837149506e-09	0.9972521	0.0002626193	-2.806711e-05
3.230002376633989e-09	0.9972521	0.0002701512	1.50684045e-05
3.2400043100917827e-09	0.9972521	0.0002111862	5.369149e-05
3.2500061797633043e-09	0.9972522	0.00010470605	7.5204975e-05
3.2600080208620025e-09	0.9972522	-2.1946258e-05	8.040475e-05
3.2700099583232455e-09	0.9972521	-0.00013950345	6.5035056e-05
3.280011889200325e-09	0.9972521	-0.00022232183	3.7228194e-05
3.290013776018815e-09	0.99725205	-0.00025202567	-1.3447217e-06
3.300015628518275e-09	0.99725205	-0.00022108287	-3.808141e-05
3.310017641267285e-09	0.9972521	-0.00013489884	-6.862594e-05
3.320019572613127e-09	0.9972522	-1.2580455e-05	-8.069458e-05
3.3300214550630576e-09	0.9972522	0.000116097246	-7.422908e-05
3.34002335868079e-09	0.9972521	0.00021693684	-4.5498007e-05
3.3500254207661886e-09	0.9972521	0.00026111564	-5.59339e-06
3.3600273099717173e-09	0.9972521	0.0002343731	3.8706836e-05
3.3700004864367454e-09	0.9972521	0.00014332164	7.042654e-05
3.380002384882218e-09	0.99725217	1.2944917e-05	8.442266e-05
3.3900043402207737e-09	0.9972521	-0.00011899815	7.249676e-05
3.4000062031144365e-09	0.9972521	-0.00021499969	4.2675852e-05
3.4100080379409595e-09	0.99725205	-0.0002492674	2.4412694e-07
3.420009986622785e-09	0.9972521	-0.0002153626	-3.8228336e-05
3.4300119225425866e-09	0.99725205	-0.0001264323	-6.630594e-05
3.4400137841232533e-09	0.9972521	-9.755923e-06	-7.345347e-05
3.4500156813256974e-09	0.9972522	0.000102753664	-6.3534106e-05
3.4600176771594033e-09	0.9972522	0.00018346665	-3.67822e-05
3.470019601489981e-09	0.9972522	0.00021557968	-4.909195e-06
3.48002151505946e-09	0.9972521	0.00019493033	2.8333216e-05
3.4900234404987977e-09	0.9972521	0.00012914	5.1764342e-05
3.5000253966923055e-09	0.9972521	3.4474302e-05	6.475057e-05
3.51002730160767e-09	0.9972521	-6.735065e-05	6.0695485e-05
3.5200004815588098e-09	0.9972521	-0.00015304322	4.4356926e-05
3.530002429006573e-09	0.9972521	-0.00020251829	1.4886239e-05
3.5400043297110884e-09	0.9972521	-0.0002021054	-1.7198121e-05
3.550006215061647e-09	0.9972521	-0.0001496524	-4.7920897e-05
3.560008065046485e-09	0.99725217	-5.66795e-05	-6.498283e-05
3.5700100462862053e-09	0.9972521	5.332992e-05	-6.690475e-05
3.5800119525283257e-09	0.9972521	0.00015040017	-4.8481368e-05
3.5900138060079936e-09	0.9972521	0.0002069261	-1.8236276e-05
3.600015737114231e-09	0.9972521	0.00020629216	1.9108582e-05
3.610017695552856e-09	0.9972522	0.00014883062	4.8833448e-05
3.6200196346127966e-09	0.9972522	5.170617e-05	6.617411e-05
3.6300214926195194e-09	0.9972522	-5.6509474e-05	6.278575e-05
3.640023485232207e-09	0.99725205	-0.00014536318	4.429221e-05
3.6500253917842406e-09	0.9972521	-0.0001915817	1.3090664e-05
3.660027293140972e-09	0.9972521	-0.00018560453	-1.781688e-05
3.67000048363825e-09	0.9972521	-0.00013284606	-4.39474e-05
3.6800024799708138e-09	0.99725217	-4.9840648e-05	-5.571108e-05
3.690004345958387e-09	0.9972522	4.095615e-05	-5.5106524e-05
3.700006204344792e-09	0.9972522	0.0001175726	-3.9711824e-05
3.7100080595049975e-09	0.9972521	0.00016335162	-1.7649361e-05
3.720010081895729e-09	0.9972521	0.00016931484	9.631387e-06
3.7300119832414695e-09	0.9972522	0.00013518272	3.2418455e-05
3.740013839303917e-09	0.9972522	6.8803485e-05	4.9497692e-05
3.750015768928678e-09	0.9972521	-1.4793145e-05	5.3070726e-05
3.76001775956645e-09	0.99725217	-9.602125e-05	4.549361e-05
3.770019648064885e-09	0.9972521	-0.00015438859	2.4233277e-05
3.7800214897605785e-09	0.99725205	-0.0001738519	-2.190343e-06
3.790023493417317e-09	0.99725205	-0.0001475143	-3.067915e-05
3.800025407751337e-09	0.9972521	-8.1005914e-05	-4.9634866e-05
3.810027255430368e-09	0.9972522	8.234526e-06	-5.696852e-05
3.82000048801358e-09	0.9972522	9.50619e-05	-4.667448e-05
3.830002487677726e-09	0.9972521	0.00015536744	-2.5163527e-05
3.840004377420265e-09	0.9972522	0.00017198939	4.792458e-06
3.85000618894221e-09	0.9972521	0.0001412965	3.081135e-05
3.860008136316137e-09	0.9972521	7.349864e-05	4.9139337e-05
3.870010106924135e-09	0.9972521	-1.0959679e-05	5.1619292e-05
3.880012005194817e-09	0.9972522	-8.846349e-05	4.2091542e-05
3.890013852476605e-09	0.9972521	-0.0001391294	2.058955e-05
3.900015829236274e-09	0.9972521	-0.00015204029	-2.9881576e-06
3.910017766378299e-09	0.9972521	-0.00012671125	-2.6075315e-05
3.920019685452571e-09	0.9972521	-7.196021e-05	-3.9871935e-05
3.9300215462452755e-09	0.9972521	-2.2956451e-06	-4.538077e-05
3.94002352161106e-09	0.99725217	6.564806e-05	-3.8442857e-05
3.95002542311979e-09	0.9972521	0.00011668237	-2.451906e-05
3.960027268259994e-09	0.9972522	0.00013939546	-3.2062574e-06
3.970000541688674e-09	0.9972521	0.00012852742	1.7214306e-05
3.9800024792760625e-09	0.9972522	8.580571e-05	3.5661553e-05
3.990004397094921e-09	0.99725217	2.0717072e-05	4.3882974e-05
4.000006234763251e-09	0.9972521	-5.1048184e-05	4.2766627e-05
4.010008215270156e-09	0.99725205	-0.00011076048	2.8510214e-05
4.020010120252288e-09	0.9972521	-0.00014183621	7.908717e-06
4.0300120267710645e-09	0.9972521	-0.00013479007	-1.697528e-05
4.040013896875461e-09	0.9972521	-9.091665e-05	-3.565801e-05
4.050015904369481e-09	0.9972521	-2.2261831e-05	-4.6073284e-05
4.060017763341513e-09	0.9972522	5.1566843e-05	-4.1829873e-05
4.070019645101969e-09	0.9972521	0.00010969595	-2.7768543e-05
4.080021584380861e-09	0.9972521	0.00013630748	-4.9112464e-06
4.090023522295271e-09	0.9972521	0.00012546283	1.6625712e-05
4.1000254321916015e-09	0.9972522	8.202031e-05	3.4276378e-05
4.110027293032659e-09	0.9972521	1.9545878e-05	4.0362138e-05
4.120000595264349e-09	0.9972521	-4.445406e-05	3.7481426e-05
4.1300025217289e-09	0.9972521	-9.41601e-05	2.387351e-05
4.140004431124603e-09	0.9972521	-0.00011839014	6.925715e-06
4.150006258593873e-09	0.9972521	-0.00011303521	-1.2412107e-05
4.160008272975108e-09	0.9972521	-8.096674e-05	-2.6408488e-05
4.170010134086928e-09	0.9972522	-3.046478e-05	-3.5533318e-05
4.1800120215177766e-09	0.9972522	2.6559443e-05	-3.4602836e-05
4.19001393165445e-09	0.9972522	7.7050194e-05	-2.7157716e-05
4.200015934113479e-09	0.9972522	0.000108973756	-1.1366419e-05
4.210017776067762e-09	0.9972522	0.000114092145	5.9513536e-06
4.2200196661122685e-09	0.9972522	9.0101435e-05	2.3905033e-05
4.230021636464778e-09	0.9972522	4.2183678e-05	3.4438708e-05
4.240023580122832e-09	0.9972521	-1.7768758e-05	3.7656653e-05
4.250025465783773e-09	0.9972521	-7.365572e-05	2.9020515e-05
4.260027304145227e-09	0.9972521	-0.000109890316	1.3900209e-05
4.27000063740683e-09	0.99725217	-0.00011603134	-6.6744046e-06
4.280002527875822e-09	0.9972521	-9.0433954e-05	-2.3674971e-05
4.290004419400461e-09	0.9972521	-4.060101e-05	-3.539132e-05
4.300006287671457e-09	0.99725217	1.8877121e-05	-3.546121e-05
4.31000829631592e-09	0.9972522	7.1234936e-05	-2.7465521e-05
4.320010189417112e-09	0.9972522	0.000102505415	-1.09449e-05
4.330012045107135e-09	0.9972522	0.00010559413	5.9968906e-06
4.340013979308461e-09	0.9972522	8.146928e-05	2.1950067e-05
4.35001595465947e-09	0.9972522	3.815307e-05	2.9891939e-05
4.360017871543244e-09	0.9972521	-1.2426567e-05	3.1597727e-05
4.370019689257212e-09	0.9972521	-5.7646415e-05	2.4104354e-05
4.380021679595091e-09	0.9972521	-8.7325556e-05	1.2837271e-05
4.390023580598908e-09	0.9972521	-9.530907e-05	-2.6035495e-06
4.400025470719502e-09	0.9972521	-8.045119e-05	-1.5571297e-05
4.410027343466071e-09	0.9972521	-4.6343786e-05	-2.6386759e-05
4.420000653381371e-09	0.99725217	-1.0239903e-06	-2.937119e-05
4.4300025567095e-09	0.9972521	4.5149784e-05	-2.6783107e-05
4.440004416237384e-09	0.9972522	8.055754e-05	-1.5769e-05
4.450006364502688e-09	0.9972522	9.577397e-05	-1.938122e-06
4.460008325761221e-09	0.9972521	8.5995125e-05	1.4336441e-05
4.470010207649764e-09	0.9972522	5.3114047e-05	2.5513304e-05
4.480012061367181e-09	0.99725217	5.5901196e-06	3.1407533e-05
4.4900140539798144e-09	0.9972521	-4.348864e-05	2.7117641e-05
4.50001596889156e-09	0.9972521	-8.039423e-05	1.6858317e-05
4.510017862883878e-09	0.99725217	-9.478846e-05	5.5903934e-07
4.520019717029382e-09	0.9972521	-8.313233e-05	-1.3992884e-05
4.530021738847997e-09	0.9972521	-4.9427956e-05	-2.5729782e-05
4.54002362720474e-09	0.9972521	-3.8870494e-06	-2.8556336e-05
4.550025475995985e-09	0.99725217	4.0679988e-05	-2.517417e-05
4.560027349308763e-09	0.9972522	7.2571114e-05	-1.399107e-05
4.5700007088267094e-09	0.9972522	8.4495055e-05	-1.4381716e-06
4.5800025741727515e-09	0.9972522	7.484117e-05	1.2230922e-05
4.590004448443842e-09	0.9972522	4.7359015e-05	2.071459e-05
4.60000640261354e-09	0.9972522	9.555053e-06	2.5353207e-05
4.610008361913598e-09	0.9972521	-2.92773e-05	2.2392942e-05
4.620010258156448e-09	0.99725217	-6.024988e-05	1.576232e-05
4.6300120908603256e-09	0.9972521	-7.635071e-05	3.9980705e-06
4.6400140982053945e-09	0.9972521	-7.390271e-05	-7.2461726e-06
4.65001598675997e-09	0.9972521	-5.3181084e-05	-1.8374967e-05
4.660017860476333e-09	0.9972521	-1.885935e-05	-2.3627996e-05
4.670019722357113e-09	0.9972522	2.085828e-05	-2.4445313e-05
4.680021728727396e-09	0.9972522	5.5738423e-05	-1.7358749e-05
4.690023612521816e-09	0.9972522	7.6333345e-05	-6.9560824e-06
4.700025477305468e-09	0.9972522	7.6586526e-05	6.9886796e-06
4.710027408788734e-09	0.9972522	5.6108216e-05	1.7663504e-05
4.720000720939667e-09	0.9972522	2.0515596e-05	2.490699e-05
4.7300026333450385e-09	0.99725217	-2.0316591e-05	2.3768327e-05
4.740004469230887e-09	0.9972521	-5.4838925e-05	1.7542947e-05
4.7500064527387395e-09	0.9972521	-7.35889e-05	5.2775595e-06
4.760008369277274e-09	0.9972521	-7.204665e-05	-6.5164595e-06
4.7700102483036625e-09	0.9972522	-5.154487e-05	-1.7439463e-05
4.7800121084324936e-09	0.9972521	-1.8620764e-05	-2.1824924e-05
4.790014097429623e-09	0.9972522	1.7473978e-05	-2.178992e-05
4.800015982350659e-09	0.9972522	4.7385292e-05	-1.4917042e-05
4.8100178518929495e-09	0.9972522	6.4221706e-05	-6.1877777e-06
4.820019791848103e-09	0.9972522	6.4708205e-05	4.993068e-06
4.8300217577795646e-09	0.9972522	4.963341e-05	1.31252555e-05
4.840023657513308e-09	0.9972522	2.3051554e-05	1.9353867e-05
4.850025505654249e-09	0.9972521	-8.584892e-06	1.9501062e-05
4.860027469731004e-09	0.9972521	-3.795192e-05	1.6436099e-05
4.870000723734611e-09	0.99725217	-5.8000995e-05	7.955626e-06
4.880002633433496e-09	0.9972521	-6.383883e-05	-1.2182512e-06
4.8900044797565975e-09	0.9972521	-5.3492633e-05	-1.1715927e-05
4.90000645659432e-09	0.9972522	-2.915065e-05	-1.7983959e-05
4.910008356085893e-09	0.99725217	3.2335975e-06	-2.1041693e-05
4.920010246610814e-09	0.9972521	3.507476e-05	-1.7057964e-05
4.930012150078141e-09	0.9972522	5.7651734e-05	-9.775629e-06